21
 energy: -29.584595686856 gnorm: 0.000499445904 xtb: 6.5.1 (homebrew)
C           -1.27174450132792        2.02362078578762        0.06493979793847
C           -1.76498983834780        1.37319676705682        1.21910687397750
C           -0.65790199343867        0.91647548963957        1.96982159219770
C            0.51942422956415        1.28475910904927        1.27991815890721
C            0.14013912065192        1.96905455253703        0.10287302990550
C           -1.88876101624024       -1.43253370067200       -1.05875886389566
C           -1.31130320045537       -2.09913667371750        0.04599125525672
C            0.09300058656307       -2.07056111671357       -0.11167148163035
C            0.38368790198045       -1.38623566627725       -1.31348866845339
C           -0.84078659824450       -0.99176296849074       -1.89890168427050
Fe          -0.65294803943949       -0.04246538075980        0.03144985255287
H           -1.86494985255523        2.53307479359021       -0.67504561150237
H            0.80914591356635        2.42903067970673       -0.60436652330952
H            1.52787954882184        1.13059960916149        1.62378282348137
H           -2.79916939805450        1.30035957134256        1.51020418059232
H           -0.70229306259843        0.43476427882725        2.93166614872562
H            1.36207081075625       -1.24969098171577       -1.74195317790292
H           -1.84889039175802       -2.60119781117556        0.83234028239165
H            0.81115051253312       -2.54679367702004        0.53406082074360
H           -2.94225378733222       -1.33947372890694       -1.26067280334899
H           -0.95740694464474       -0.50318393124936       -2.85129600235684
