39
 energy: -47.437506100025 gnorm: 0.000429582909 xtb: 6.5.1 (homebrew)
N            2.14243034884350       -0.71588512175696        0.85240887551590
N            2.04120855037588        0.86736953346091       -0.90134816076061
N           -2.04084087515253       -0.86644986604773       -0.90115730615119
N           -2.14343939548562        0.71559772239949        0.85370086580827
C            1.30838183241335        0.04984177285196       -0.00572173130078
C           -1.30872957252229       -0.04847258959821       -0.00511675141115
C           -0.00020128141901        0.00148051780307        0.01994276211507
C            3.06647559293470       -1.58074925751457        0.14225359086492
C            1.43635671415610       -1.42333839506286        1.89370575547766
C            3.06380480916411        1.68649901333248       -0.27952793989643
C            1.23207262769775        1.62671366501228       -1.82390288827325
C           -3.06035896246355       -1.68896404004916       -0.27866694336502
C           -1.23098941038112       -1.62279410316479       -1.82567266127935
C           -3.07102658080366        1.57784222701845        0.14501788957376
C           -1.43766244200074        1.42499828711976        1.89387828281746
H            2.57094585296117       -2.48501993089208       -0.24102407173336
H            3.86326473284332       -1.88570363465566        0.82319358534183
H            3.49813434129945       -1.04140505337259       -0.69647543150615
H            0.76117510559002       -2.19928447916085        1.50248215700786
H            0.84527058683415       -0.71457134381132        2.47049013577509
H            2.16681389156803       -1.89384320968964        2.55202842833253
H            2.64105173210910        2.59453455045361        0.17505949781391
H            3.78837003925594        1.98683282095449       -1.03874860535088
H            3.56871027765027        1.11535276474479        0.49400092961563
H            0.63635875513834        2.40573371171286       -1.32426380479831
H            0.54835836771324        0.95855811894717       -2.34325019901914
H            1.88771721534985        2.10223233990226       -2.55365164971296
H           -2.63459112211458       -2.59636083399472        0.17440648188221
H           -3.78519488907963       -1.99039503273508       -1.03723309947850
H           -3.56564020776506       -1.11972705600075        0.49608327191129
H           -0.63254161773446       -2.40072580950568       -1.32772529816571
H           -0.54958263773239       -0.95225755271305       -2.34519429995387
H           -1.88637153860440       -2.09889467399876       -2.55522744900884
H           -2.57848933023531        2.48345736765157       -0.23920782368271
H           -3.86727190884451        1.88084109129784        0.82730841487367
H           -3.50259389365785        1.03719404037723       -0.69276366909168
H           -0.76517903516310        2.20267519751225        1.50144458771776
H           -0.84376238768942        0.71795509779606        2.46986955633696
H           -2.16833417100793        1.89363209805474        2.55330474970167
