13
 energy: -21.042845375123 gnorm: 0.000517595154 xtb: 6.4.1 (bd6e46d)
O         1.50053293853573   -0.88205761084019    0.50712406940978
O         1.07763669361858    0.84033598311343   -0.84323411350215
N        -1.41584483106736    1.14053339724896    0.32061570991380
C        -0.74703668140597   -0.14241365828753    0.39483314336773
C        -1.36427544728843   -1.23681340342506   -0.49856205416032
C         0.69350620289496    0.02544405155330   -0.04861413777604
H        -0.75475184655828   -0.48702077184518    1.43576613846518
H        -0.81737283318461   -2.16939337964246   -0.38726385867522
H        -2.40002005286233   -1.40248392671320   -0.20962921119510
H        -1.33369662578716   -0.92980253142921   -1.54267736801925
H        -2.41747681722145    1.01991212059129    0.22495096676925
H        -1.07406367672107    1.65478260191222   -0.48542691178757
H         2.40866297704738   -0.77112287223641    0.18191762718991
